+ 0.1 1 2 cbr 1000 ------- 2 1.0 2.0 0 0
- 0.1 1 2 cbr 1000 ------- 2 1.0 2.0 0 0
+ 0.10016 1 2 cbr 1000 ------- 2 1.0 2.0 1 1
+ 0.10032 1 2 cbr 1000 ------- 2 1.0 2.0 2 2
+ 0.10048 1 2 cbr 1000 ------- 2 1.0 2.0 3 3
+ 0.10064 1 2 cbr 1000 ------- 2 1.0 2.0 4 4
+ 0.1008 1 2 cbr 1000 ------- 2 1.0 2.0 5 5
- 0.1008 1 2 cbr 1000 ------- 2 1.0 2.0 1 1
+ 0.10096 1 2 cbr 1000 ------- 2 1.0 2.0 6 6
+ 0.10112 1 2 cbr 1000 ------- 2 1.0 2.0 7 7
+ 0.10128 1 2 cbr 1000 ------- 2 1.0 2.0 8 8
+ 0.10144 1 2 cbr 1000 ------- 2 1.0 2.0 9 9
+ 0.1016 1 2 cbr 1000 ------- 2 1.0 2.0 10 10
- 0.1016 1 2 cbr 1000 ------- 2 1.0 2.0 2 2
+ 0.10176 1 2 cbr 1000 ------- 2 1.0 2.0 11 11
+ 0.10192 1 2 cbr 1000 ------- 2 1.0 2.0 12 12
+ 0.10208 1 2 cbr 1000 ------- 2 1.0 2.0 13 13
+ 0.10224 1 2 cbr 1000 ------- 2 1.0 2.0 14 14
+ 0.1024 1 2 cbr 1000 ------- 2 1.0 2.0 15 15
- 0.1024 1 2 cbr 1000 ------- 2 1.0 2.0 3 3
+ 0.10256 1 2 cbr 1000 ------- 2 1.0 2.0 16 16
+ 0.10272 1 2 cbr 1000 ------- 2 1.0 2.0 17 17
+ 0.10288 1 2 cbr 1000 ------- 2 1.0 2.0 18 18
+ 0.10304 1 2 cbr 1000 ------- 2 1.0 2.0 19 19
+ 0.1032 1 2 cbr 1000 ------- 2 1.0 2.0 20 20
- 0.1032 1 2 cbr 1000 ------- 2 1.0 2.0 4 4
+ 0.10336 1 2 cbr 1000 ------- 2 1.0 2.0 21 21
+ 0.10352 1 2 cbr 1000 ------- 2 1.0 2.0 22 22
+ 0.10368 1 2 cbr 1000 ------- 2 1.0 2.0 23 23
+ 0.10384 1 2 cbr 1000 ------- 2 1.0 2.0 24 24
+ 0.104 1 2 cbr 1000 ------- 2 1.0 2.0 25 25
- 0.104 1 2 cbr 1000 ------- 2 1.0 2.0 5 5
+ 0.10416 1 2 cbr 1000 ------- 2 1.0 2.0 26 26
+ 0.10432 1 2 cbr 1000 ------- 2 1.0 2.0 27 27
+ 0.10448 1 2 cbr 1000 ------- 2 1.0 2.0 28 28
+ 0.10464 1 2 cbr 1000 ------- 2 1.0 2.0 29 29
+ 0.1048 1 2 cbr 1000 ------- 2 1.0 2.0 30 30
- 0.1048 1 2 cbr 1000 ------- 2 1.0 2.0 6 6
+ 0.10496 1 2 cbr 1000 ------- 2 1.0 2.0 31 31
+ 0.10512 1 2 cbr 1000 ------- 2 1.0 2.0 32 32
+ 0.10528 1 2 cbr 1000 ------- 2 1.0 2.0 33 33
+ 0.10544 1 2 cbr 1000 ------- 2 1.0 2.0 34 34
+ 0.1056 1 2 cbr 1000 ------- 2 1.0 2.0 35 35
- 0.1056 1 2 cbr 1000 ------- 2 1.0 2.0 7 7
+ 0.10576 1 2 cbr 1000 ------- 2 1.0 2.0 36 36
+ 0.10592 1 2 cbr 1000 ------- 2 1.0 2.0 37 37
+ 0.10608 1 2 cbr 1000 ------- 2 1.0 2.0 38 38
+ 0.10624 1 2 cbr 1000 ------- 2 1.0 2.0 39 39
+ 0.1064 1 2 cbr 1000 ------- 2 1.0 2.0 40 40
- 0.1064 1 2 cbr 1000 ------- 2 1.0 2.0 8 8
+ 0.10656 1 2 cbr 1000 ------- 2 1.0 2.0 41 41
+ 0.10672 1 2 cbr 1000 ------- 2 1.0 2.0 42 42
+ 0.10688 1 2 cbr 1000 ------- 2 1.0 2.0 43 43
+ 0.10704 1 2 cbr 1000 ------- 2 1.0 2.0 44 44
+ 0.1072 1 2 cbr 1000 ------- 2 1.0 2.0 45 45
- 0.1072 1 2 cbr 1000 ------- 2 1.0 2.0 9 9
+ 0.10736 1 2 cbr 1000 ------- 2 1.0 2.0 46 46
+ 0.10752 1 2 cbr 1000 ------- 2 1.0 2.0 47 47
+ 0.10768 1 2 cbr 1000 ------- 2 1.0 2.0 48 48
+ 0.10784 1 2 cbr 1000 ------- 2 1.0 2.0 49 49
+ 0.108 1 2 cbr 1000 ------- 2 1.0 2.0 50 50
- 0.108 1 2 cbr 1000 ------- 2 1.0 2.0 10 10
+ 0.10816 1 2 cbr 1000 ------- 2 1.0 2.0 51 51
+ 0.10832 1 2 cbr 1000 ------- 2 1.0 2.0 52 52
+ 0.10848 1 2 cbr 1000 ------- 2 1.0 2.0 53 53
+ 0.10864 1 2 cbr 1000 ------- 2 1.0 2.0 54 54
+ 0.1088 1 2 cbr 1000 ------- 2 1.0 2.0 55 55
- 0.1088 1 2 cbr 1000 ------- 2 1.0 2.0 11 11
+ 0.10896 1 2 cbr 1000 ------- 2 1.0 2.0 56 56
+ 0.10912 1 2 cbr 1000 ------- 2 1.0 2.0 57 57
+ 0.10928 1 2 cbr 1000 ------- 2 1.0 2.0 58 58
+ 0.10944 1 2 cbr 1000 ------- 2 1.0 2.0 59 59
+ 0.1096 1 2 cbr 1000 ------- 2 1.0 2.0 60 60
- 0.1096 1 2 cbr 1000 ------- 2 1.0 2.0 12 12
+ 0.10976 1 2 cbr 1000 ------- 2 1.0 2.0 61 61
+ 0.10992 1 2 cbr 1000 ------- 2 1.0 2.0 62 62
d 0.10992 1 2 cbr 1000 ------- 2 1.0 2.0 62 62
+ 0.11008 1 2 cbr 1000 ------- 2 1.0 2.0 63 63
d 0.11008 1 2 cbr 1000 ------- 2 1.0 2.0 63 63
+ 0.11024 1 2 cbr 1000 ------- 2 1.0 2.0 64 64
d 0.11024 1 2 cbr 1000 ------- 2 1.0 2.0 64 64
+ 0.1104 1 2 cbr 1000 ------- 2 1.0 2.0 65 65
d 0.1104 1 2 cbr 1000 ------- 2 1.0 2.0 65 65
- 0.1104 1 2 cbr 1000 ------- 2 1.0 2.0 13 13
+ 0.11056 1 2 cbr 1000 ------- 2 1.0 2.0 66 66
+ 0.11072 1 2 cbr 1000 ------- 2 1.0 2.0 67 67
d 0.11072 1 2 cbr 1000 ------- 2 1.0 2.0 67 67
r 0.1108 1 2 cbr 1000 ------- 2 1.0 2.0 0 0
+ 0.11088 1 2 cbr 1000 ------- 2 1.0 2.0 68 68
d 0.11088 1 2 cbr 1000 ------- 2 1.0 2.0 68 68
+ 0.11104 1 2 cbr 1000 ------- 2 1.0 2.0 69 69
d 0.11104 1 2 cbr 1000 ------- 2 1.0 2.0 69 69
+ 0.1112 1 2 cbr 1000 ------- 2 1.0 2.0 70 70
d 0.1112 1 2 cbr 1000 ------- 2 1.0 2.0 70 70
- 0.1112 1 2 cbr 1000 ------- 2 1.0 2.0 14 14
+ 0.11136 1 2 cbr 1000 ------- 2 1.0 2.0 71 71
+ 0.11152 1 2 cbr 1000 ------- 2 1.0 2.0 72 72
d 0.11152 1 2 cbr 1000 ------- 2 1.0 2.0 72 72
r 0.1116 1 2 cbr 1000 ------- 2 1.0 2.0 1 1
+ 0.11168 1 2 cbr 1000 ------- 2 1.0 2.0 73 73
d 0.11168 1 2 cbr 1000 ------- 2 1.0 2.0 73 73
+ 0.11184 1 2 cbr 1000 ------- 2 1.0 2.0 74 74
d 0.11184 1 2 cbr 1000 ------- 2 1.0 2.0 74 74
+ 0.112 1 2 cbr 1000 ------- 2 1.0 2.0 75 75
d 0.112 1 2 cbr 1000 ------- 2 1.0 2.0 75 75
- 0.112 1 2 cbr 1000 ------- 2 1.0 2.0 15 15
+ 0.11216 1 2 cbr 1000 ------- 2 1.0 2.0 76 76
+ 0.11232 1 2 cbr 1000 ------- 2 1.0 2.0 77 77
d 0.11232 1 2 cbr 1000 ------- 2 1.0 2.0 77 77
r 0.1124 1 2 cbr 1000 ------- 2 1.0 2.0 2 2
+ 0.11248 1 2 cbr 1000 ------- 2 1.0 2.0 78 78
d 0.11248 1 2 cbr 1000 ------- 2 1.0 2.0 78 78
+ 0.11264 1 2 cbr 1000 ------- 2 1.0 2.0 79 79
d 0.11264 1 2 cbr 1000 ------- 2 1.0 2.0 79 79
+ 0.1128 1 2 cbr 1000 ------- 2 1.0 2.0 80 80
d 0.1128 1 2 cbr 1000 ------- 2 1.0 2.0 80 80
- 0.1128 1 2 cbr 1000 ------- 2 1.0 2.0 16 16
+ 0.11296 1 2 cbr 1000 ------- 2 1.0 2.0 81 81
+ 0.11312 1 2 cbr 1000 ------- 2 1.0 2.0 82 82
d 0.11312 1 2 cbr 1000 ------- 2 1.0 2.0 82 82
r 0.1132 1 2 cbr 1000 ------- 2 1.0 2.0 3 3
+ 0.11328 1 2 cbr 1000 ------- 2 1.0 2.0 83 83
d 0.11328 1 2 cbr 1000 ------- 2 1.0 2.0 83 83
+ 0.11344 1 2 cbr 1000 ------- 2 1.0 2.0 84 84
d 0.11344 1 2 cbr 1000 ------- 2 1.0 2.0 84 84
+ 0.1136 1 2 cbr 1000 ------- 2 1.0 2.0 85 85
d 0.1136 1 2 cbr 1000 ------- 2 1.0 2.0 85 85
- 0.1136 1 2 cbr 1000 ------- 2 1.0 2.0 17 17
+ 0.11376 1 2 cbr 1000 ------- 2 1.0 2.0 86 86
+ 0.11392 1 2 cbr 1000 ------- 2 1.0 2.0 87 87
d 0.11392 1 2 cbr 1000 ------- 2 1.0 2.0 87 87
r 0.114 1 2 cbr 1000 ------- 2 1.0 2.0 4 4
+ 0.11408 1 2 cbr 1000 ------- 2 1.0 2.0 88 88
d 0.11408 1 2 cbr 1000 ------- 2 1.0 2.0 88 88
+ 0.11424 1 2 cbr 1000 ------- 2 1.0 2.0 89 89
d 0.11424 1 2 cbr 1000 ------- 2 1.0 2.0 89 89
+ 0.1144 1 2 cbr 1000 ------- 2 1.0 2.0 90 90
d 0.1144 1 2 cbr 1000 ------- 2 1.0 2.0 90 90
- 0.1144 1 2 cbr 1000 ------- 2 1.0 2.0 18 18
+ 0.11456 1 2 cbr 1000 ------- 2 1.0 2.0 91 91
+ 0.11472 1 2 cbr 1000 ------- 2 1.0 2.0 92 92
d 0.11472 1 2 cbr 1000 ------- 2 1.0 2.0 92 92
r 0.1148 1 2 cbr 1000 ------- 2 1.0 2.0 5 5
+ 0.11488 1 2 cbr 1000 ------- 2 1.0 2.0 93 93
d 0.11488 1 2 cbr 1000 ------- 2 1.0 2.0 93 93
+ 0.11504 1 2 cbr 1000 ------- 2 1.0 2.0 94 94
d 0.11504 1 2 cbr 1000 ------- 2 1.0 2.0 94 94
+ 0.1152 1 2 cbr 1000 ------- 2 1.0 2.0 95 95
d 0.1152 1 2 cbr 1000 ------- 2 1.0 2.0 95 95
- 0.1152 1 2 cbr 1000 ------- 2 1.0 2.0 19 19
+ 0.11536 1 2 cbr 1000 ------- 2 1.0 2.0 96 96
+ 0.11552 1 2 cbr 1000 ------- 2 1.0 2.0 97 97
d 0.11552 1 2 cbr 1000 ------- 2 1.0 2.0 97 97
r 0.1156 1 2 cbr 1000 ------- 2 1.0 2.0 6 6
+ 0.11568 1 2 cbr 1000 ------- 2 1.0 2.0 98 98
d 0.11568 1 2 cbr 1000 ------- 2 1.0 2.0 98 98
+ 0.11584 1 2 cbr 1000 ------- 2 1.0 2.0 99 99
d 0.11584 1 2 cbr 1000 ------- 2 1.0 2.0 99 99
+ 0.116 1 2 cbr 1000 ------- 2 1.0 2.0 100 100
d 0.116 1 2 cbr 1000 ------- 2 1.0 2.0 100 100
- 0.116 1 2 cbr 1000 ------- 2 1.0 2.0 20 20
+ 0.11616 1 2 cbr 1000 ------- 2 1.0 2.0 101 101
+ 0.11632 1 2 cbr 1000 ------- 2 1.0 2.0 102 102
d 0.11632 1 2 cbr 1000 ------- 2 1.0 2.0 102 102
r 0.1164 1 2 cbr 1000 ------- 2 1.0 2.0 7 7
+ 0.11648 1 2 cbr 1000 ------- 2 1.0 2.0 103 103
d 0.11648 1 2 cbr 1000 ------- 2 1.0 2.0 103 103
+ 0.11664 1 2 cbr 1000 ------- 2 1.0 2.0 104 104
d 0.11664 1 2 cbr 1000 ------- 2 1.0 2.0 104 104
+ 0.1168 1 2 cbr 1000 ------- 2 1.0 2.0 105 105
d 0.1168 1 2 cbr 1000 ------- 2 1.0 2.0 105 105
- 0.1168 1 2 cbr 1000 ------- 2 1.0 2.0 21 21
+ 0.11696 1 2 cbr 1000 ------- 2 1.0 2.0 106 106
+ 0.11712 1 2 cbr 1000 ------- 2 1.0 2.0 107 107
d 0.11712 1 2 cbr 1000 ------- 2 1.0 2.0 107 107
r 0.1172 1 2 cbr 1000 ------- 2 1.0 2.0 8 8
+ 0.11728 1 2 cbr 1000 ------- 2 1.0 2.0 108 108
d 0.11728 1 2 cbr 1000 ------- 2 1.0 2.0 108 108
+ 0.11744 1 2 cbr 1000 ------- 2 1.0 2.0 109 109
d 0.11744 1 2 cbr 1000 ------- 2 1.0 2.0 109 109
+ 0.1176 1 2 cbr 1000 ------- 2 1.0 2.0 110 110
d 0.1176 1 2 cbr 1000 ------- 2 1.0 2.0 110 110
- 0.1176 1 2 cbr 1000 ------- 2 1.0 2.0 22 22
+ 0.11776 1 2 cbr 1000 ------- 2 1.0 2.0 111 111
+ 0.11792 1 2 cbr 1000 ------- 2 1.0 2.0 112 112
d 0.11792 1 2 cbr 1000 ------- 2 1.0 2.0 112 112
r 0.118 1 2 cbr 1000 ------- 2 1.0 2.0 9 9
+ 0.11808 1 2 cbr 1000 ------- 2 1.0 2.0 113 113
d 0.11808 1 2 cbr 1000 ------- 2 1.0 2.0 113 113
+ 0.11824 1 2 cbr 1000 ------- 2 1.0 2.0 114 114
d 0.11824 1 2 cbr 1000 ------- 2 1.0 2.0 114 114
+ 0.1184 1 2 cbr 1000 ------- 2 1.0 2.0 115 115
d 0.1184 1 2 cbr 1000 ------- 2 1.0 2.0 115 115
- 0.1184 1 2 cbr 1000 ------- 2 1.0 2.0 23 23
+ 0.11856 1 2 cbr 1000 ------- 2 1.0 2.0 116 116
+ 0.11872 1 2 cbr 1000 ------- 2 1.0 2.0 117 117
d 0.11872 1 2 cbr 1000 ------- 2 1.0 2.0 117 117
r 0.1188 1 2 cbr 1000 ------- 2 1.0 2.0 10 10
+ 0.11888 1 2 cbr 1000 ------- 2 1.0 2.0 118 118
d 0.11888 1 2 cbr 1000 ------- 2 1.0 2.0 118 118
+ 0.11904 1 2 cbr 1000 ------- 2 1.0 2.0 119 119
d 0.11904 1 2 cbr 1000 ------- 2 1.0 2.0 119 119
+ 0.1192 1 2 cbr 1000 ------- 2 1.0 2.0 120 120
d 0.1192 1 2 cbr 1000 ------- 2 1.0 2.0 120 120
- 0.1192 1 2 cbr 1000 ------- 2 1.0 2.0 24 24
+ 0.11936 1 2 cbr 1000 ------- 2 1.0 2.0 121 121
+ 0.11952 1 2 cbr 1000 ------- 2 1.0 2.0 122 122
d 0.11952 1 2 cbr 1000 ------- 2 1.0 2.0 122 122
r 0.1196 1 2 cbr 1000 ------- 2 1.0 2.0 11 11
+ 0.11968 1 2 cbr 1000 ------- 2 1.0 2.0 123 123
d 0.11968 1 2 cbr 1000 ------- 2 1.0 2.0 123 123
+ 0.11984 1 2 cbr 1000 ------- 2 1.0 2.0 124 124
d 0.11984 1 2 cbr 1000 ------- 2 1.0 2.0 124 124
+ 0.12 1 2 cbr 1000 ------- 2 1.0 2.0 125 125
d 0.12 1 2 cbr 1000 ------- 2 1.0 2.0 125 125
- 0.12 1 2 cbr 1000 ------- 2 1.0 2.0 25 25
+ 0.12016 1 2 cbr 1000 ------- 2 1.0 2.0 126 126
+ 0.12032 1 2 cbr 1000 ------- 2 1.0 2.0 127 127
d 0.12032 1 2 cbr 1000 ------- 2 1.0 2.0 127 127
r 0.1204 1 2 cbr 1000 ------- 2 1.0 2.0 12 12
+ 0.12048 1 2 cbr 1000 ------- 2 1.0 2.0 128 128
d 0.12048 1 2 cbr 1000 ------- 2 1.0 2.0 128 128
+ 0.12064 1 2 cbr 1000 ------- 2 1.0 2.0 129 129
d 0.12064 1 2 cbr 1000 ------- 2 1.0 2.0 129 129
+ 0.1208 1 2 cbr 1000 ------- 2 1.0 2.0 130 130
d 0.1208 1 2 cbr 1000 ------- 2 1.0 2.0 130 130
- 0.1208 1 2 cbr 1000 ------- 2 1.0 2.0 26 26
+ 0.12096 1 2 cbr 1000 ------- 2 1.0 2.0 131 131
+ 0.12112 1 2 cbr 1000 ------- 2 1.0 2.0 132 132
d 0.12112 1 2 cbr 1000 ------- 2 1.0 2.0 132 132
r 0.1212 1 2 cbr 1000 ------- 2 1.0 2.0 13 13
+ 0.12128 1 2 cbr 1000 ------- 2 1.0 2.0 133 133
d 0.12128 1 2 cbr 1000 ------- 2 1.0 2.0 133 133
+ 0.12144 1 2 cbr 1000 ------- 2 1.0 2.0 134 134
d 0.12144 1 2 cbr 1000 ------- 2 1.0 2.0 134 134
+ 0.1216 1 2 cbr 1000 ------- 2 1.0 2.0 135 135
d 0.1216 1 2 cbr 1000 ------- 2 1.0 2.0 135 135
- 0.1216 1 2 cbr 1000 ------- 2 1.0 2.0 27 27
+ 0.12176 1 2 cbr 1000 ------- 2 1.0 2.0 136 136
+ 0.12192 1 2 cbr 1000 ------- 2 1.0 2.0 137 137
d 0.12192 1 2 cbr 1000 ------- 2 1.0 2.0 137 137
r 0.122 1 2 cbr 1000 ------- 2 1.0 2.0 14 14
+ 0.12208 1 2 cbr 1000 ------- 2 1.0 2.0 138 138
d 0.12208 1 2 cbr 1000 ------- 2 1.0 2.0 138 138
+ 0.12224 1 2 cbr 1000 ------- 2 1.0 2.0 139 139
d 0.12224 1 2 cbr 1000 ------- 2 1.0 2.0 139 139
+ 0.1224 1 2 cbr 1000 ------- 2 1.0 2.0 140 140
d 0.1224 1 2 cbr 1000 ------- 2 1.0 2.0 140 140
- 0.1224 1 2 cbr 1000 ------- 2 1.0 2.0 28 28
+ 0.12256 1 2 cbr 1000 ------- 2 1.0 2.0 141 141
+ 0.12272 1 2 cbr 1000 ------- 2 1.0 2.0 142 142
d 0.12272 1 2 cbr 1000 ------- 2 1.0 2.0 142 142
r 0.1228 1 2 cbr 1000 ------- 2 1.0 2.0 15 15
+ 0.12288 1 2 cbr 1000 ------- 2 1.0 2.0 143 143
d 0.12288 1 2 cbr 1000 ------- 2 1.0 2.0 143 143
+ 0.12304 1 2 cbr 1000 ------- 2 1.0 2.0 144 144
d 0.12304 1 2 cbr 1000 ------- 2 1.0 2.0 144 144
+ 0.1232 1 2 cbr 1000 ------- 2 1.0 2.0 145 145
d 0.1232 1 2 cbr 1000 ------- 2 1.0 2.0 145 145
- 0.1232 1 2 cbr 1000 ------- 2 1.0 2.0 29 29
+ 0.12336 1 2 cbr 1000 ------- 2 1.0 2.0 146 146
+ 0.12352 1 2 cbr 1000 ------- 2 1.0 2.0 147 147
d 0.12352 1 2 cbr 1000 ------- 2 1.0 2.0 147 147
r 0.1236 1 2 cbr 1000 ------- 2 1.0 2.0 16 16
+ 0.12368 1 2 cbr 1000 ------- 2 1.0 2.0 148 148
d 0.12368 1 2 cbr 1000 ------- 2 1.0 2.0 148 148
+ 0.12384 1 2 cbr 1000 ------- 2 1.0 2.0 149 149
d 0.12384 1 2 cbr 1000 ------- 2 1.0 2.0 149 149
+ 0.124 1 2 cbr 1000 ------- 2 1.0 2.0 150 150
d 0.124 1 2 cbr 1000 ------- 2 1.0 2.0 150 150
- 0.124 1 2 cbr 1000 ------- 2 1.0 2.0 30 30
+ 0.12416 1 2 cbr 1000 ------- 2 1.0 2.0 151 151
+ 0.12432 1 2 cbr 1000 ------- 2 1.0 2.0 152 152
d 0.12432 1 2 cbr 1000 ------- 2 1.0 2.0 152 152
r 0.1244 1 2 cbr 1000 ------- 2 1.0 2.0 17 17
+ 0.12448 1 2 cbr 1000 ------- 2 1.0 2.0 153 153
d 0.12448 1 2 cbr 1000 ------- 2 1.0 2.0 153 153
+ 0.12464 1 2 cbr 1000 ------- 2 1.0 2.0 154 154
d 0.12464 1 2 cbr 1000 ------- 2 1.0 2.0 154 154
+ 0.1248 1 2 cbr 1000 ------- 2 1.0 2.0 155 155
d 0.1248 1 2 cbr 1000 ------- 2 1.0 2.0 155 155
- 0.1248 1 2 cbr 1000 ------- 2 1.0 2.0 31 31
+ 0.12496 1 2 cbr 1000 ------- 2 1.0 2.0 156 156
+ 0.12512 1 2 cbr 1000 ------- 2 1.0 2.0 157 157
d 0.12512 1 2 cbr 1000 ------- 2 1.0 2.0 157 157
r 0.1252 1 2 cbr 1000 ------- 2 1.0 2.0 18 18
+ 0.12528 1 2 cbr 1000 ------- 2 1.0 2.0 158 158
d 0.12528 1 2 cbr 1000 ------- 2 1.0 2.0 158 158
+ 0.12544 1 2 cbr 1000 ------- 2 1.0 2.0 159 159
d 0.12544 1 2 cbr 1000 ------- 2 1.0 2.0 159 159
+ 0.1256 1 2 cbr 1000 ------- 2 1.0 2.0 160 160
d 0.1256 1 2 cbr 1000 ------- 2 1.0 2.0 160 160
- 0.1256 1 2 cbr 1000 ------- 2 1.0 2.0 32 32
+ 0.12576 1 2 cbr 1000 ------- 2 1.0 2.0 161 161
+ 0.12592 1 2 cbr 1000 ------- 2 1.0 2.0 162 162
d 0.12592 1 2 cbr 1000 ------- 2 1.0 2.0 162 162
r 0.126 1 2 cbr 1000 ------- 2 1.0 2.0 19 19
+ 0.12608 1 2 cbr 1000 ------- 2 1.0 2.0 163 163
d 0.12608 1 2 cbr 1000 ------- 2 1.0 2.0 163 163
+ 0.12624 1 2 cbr 1000 ------- 2 1.0 2.0 164 164
d 0.12624 1 2 cbr 1000 ------- 2 1.0 2.0 164 164
+ 0.1264 1 2 cbr 1000 ------- 2 1.0 2.0 165 165
d 0.1264 1 2 cbr 1000 ------- 2 1.0 2.0 165 165
- 0.1264 1 2 cbr 1000 ------- 2 1.0 2.0 33 33
+ 0.12656 1 2 cbr 1000 ------- 2 1.0 2.0 166 166
+ 0.12672 1 2 cbr 1000 ------- 2 1.0 2.0 167 167
d 0.12672 1 2 cbr 1000 ------- 2 1.0 2.0 167 167
r 0.1268 1 2 cbr 1000 ------- 2 1.0 2.0 20 20
+ 0.12688 1 2 cbr 1000 ------- 2 1.0 2.0 168 168
d 0.12688 1 2 cbr 1000 ------- 2 1.0 2.0 168 168
+ 0.12704 1 2 cbr 1000 ------- 2 1.0 2.0 169 169
d 0.12704 1 2 cbr 1000 ------- 2 1.0 2.0 169 169
+ 0.1272 1 2 cbr 1000 ------- 2 1.0 2.0 170 170
d 0.1272 1 2 cbr 1000 ------- 2 1.0 2.0 170 170
- 0.1272 1 2 cbr 1000 ------- 2 1.0 2.0 34 34
+ 0.12736 1 2 cbr 1000 ------- 2 1.0 2.0 171 171
+ 0.12752 1 2 cbr 1000 ------- 2 1.0 2.0 172 172
d 0.12752 1 2 cbr 1000 ------- 2 1.0 2.0 172 172
r 0.1276 1 2 cbr 1000 ------- 2 1.0 2.0 21 21
+ 0.12768 1 2 cbr 1000 ------- 2 1.0 2.0 173 173
d 0.12768 1 2 cbr 1000 ------- 2 1.0 2.0 173 173
+ 0.12784 1 2 cbr 1000 ------- 2 1.0 2.0 174 174
d 0.12784 1 2 cbr 1000 ------- 2 1.0 2.0 174 174
+ 0.128 1 2 cbr 1000 ------- 2 1.0 2.0 175 175
d 0.128 1 2 cbr 1000 ------- 2 1.0 2.0 175 175
- 0.128 1 2 cbr 1000 ------- 2 1.0 2.0 35 35
+ 0.12816 1 2 cbr 1000 ------- 2 1.0 2.0 176 176
+ 0.12832 1 2 cbr 1000 ------- 2 1.0 2.0 177 177
d 0.12832 1 2 cbr 1000 ------- 2 1.0 2.0 177 177
r 0.1284 1 2 cbr 1000 ------- 2 1.0 2.0 22 22
+ 0.12848 1 2 cbr 1000 ------- 2 1.0 2.0 178 178
d 0.12848 1 2 cbr 1000 ------- 2 1.0 2.0 178 178
+ 0.12864 1 2 cbr 1000 ------- 2 1.0 2.0 179 179
d 0.12864 1 2 cbr 1000 ------- 2 1.0 2.0 179 179
+ 0.1288 1 2 cbr 1000 ------- 2 1.0 2.0 180 180
d 0.1288 1 2 cbr 1000 ------- 2 1.0 2.0 180 180
- 0.1288 1 2 cbr 1000 ------- 2 1.0 2.0 36 36
+ 0.12896 1 2 cbr 1000 ------- 2 1.0 2.0 181 181
+ 0.12912 1 2 cbr 1000 ------- 2 1.0 2.0 182 182
d 0.12912 1 2 cbr 1000 ------- 2 1.0 2.0 182 182
r 0.1292 1 2 cbr 1000 ------- 2 1.0 2.0 23 23
+ 0.12928 1 2 cbr 1000 ------- 2 1.0 2.0 183 183
d 0.12928 1 2 cbr 1000 ------- 2 1.0 2.0 183 183
+ 0.12944 1 2 cbr 1000 ------- 2 1.0 2.0 184 184
d 0.12944 1 2 cbr 1000 ------- 2 1.0 2.0 184 184
+ 0.1296 1 2 cbr 1000 ------- 2 1.0 2.0 185 185
d 0.1296 1 2 cbr 1000 ------- 2 1.0 2.0 185 185
- 0.1296 1 2 cbr 1000 ------- 2 1.0 2.0 37 37
+ 0.12976 1 2 cbr 1000 ------- 2 1.0 2.0 186 186
+ 0.12992 1 2 cbr 1000 ------- 2 1.0 2.0 187 187
d 0.12992 1 2 cbr 1000 ------- 2 1.0 2.0 187 187
r 0.13 1 2 cbr 1000 ------- 2 1.0 2.0 24 24
+ 0.13008 1 2 cbr 1000 ------- 2 1.0 2.0 188 188
d 0.13008 1 2 cbr 1000 ------- 2 1.0 2.0 188 188
+ 0.13024 1 2 cbr 1000 ------- 2 1.0 2.0 189 189
d 0.13024 1 2 cbr 1000 ------- 2 1.0 2.0 189 189
+ 0.1304 1 2 cbr 1000 ------- 2 1.0 2.0 190 190
d 0.1304 1 2 cbr 1000 ------- 2 1.0 2.0 190 190
- 0.1304 1 2 cbr 1000 ------- 2 1.0 2.0 38 38
+ 0.13056 1 2 cbr 1000 ------- 2 1.0 2.0 191 191
+ 0.13072 1 2 cbr 1000 ------- 2 1.0 2.0 192 192
d 0.13072 1 2 cbr 1000 ------- 2 1.0 2.0 192 192
r 0.1308 1 2 cbr 1000 ------- 2 1.0 2.0 25 25
+ 0.13088 1 2 cbr 1000 ------- 2 1.0 2.0 193 193
d 0.13088 1 2 cbr 1000 ------- 2 1.0 2.0 193 193
+ 0.13104 1 2 cbr 1000 ------- 2 1.0 2.0 194 194
d 0.13104 1 2 cbr 1000 ------- 2 1.0 2.0 194 194
+ 0.1312 1 2 cbr 1000 ------- 2 1.0 2.0 195 195
d 0.1312 1 2 cbr 1000 ------- 2 1.0 2.0 195 195
- 0.1312 1 2 cbr 1000 ------- 2 1.0 2.0 39 39
+ 0.13136 1 2 cbr 1000 ------- 2 1.0 2.0 196 196
+ 0.13152 1 2 cbr 1000 ------- 2 1.0 2.0 197 197
d 0.13152 1 2 cbr 1000 ------- 2 1.0 2.0 197 197
r 0.1316 1 2 cbr 1000 ------- 2 1.0 2.0 26 26
+ 0.13168 1 2 cbr 1000 ------- 2 1.0 2.0 198 198
d 0.13168 1 2 cbr 1000 ------- 2 1.0 2.0 198 198
+ 0.13184 1 2 cbr 1000 ------- 2 1.0 2.0 199 199
d 0.13184 1 2 cbr 1000 ------- 2 1.0 2.0 199 199
+ 0.132 1 2 cbr 1000 ------- 2 1.0 2.0 200 200
d 0.132 1 2 cbr 1000 ------- 2 1.0 2.0 200 200
- 0.132 1 2 cbr 1000 ------- 2 1.0 2.0 40 40
+ 0.13216 1 2 cbr 1000 ------- 2 1.0 2.0 201 201
+ 0.13232 1 2 cbr 1000 ------- 2 1.0 2.0 202 202
d 0.13232 1 2 cbr 1000 ------- 2 1.0 2.0 202 202
r 0.1324 1 2 cbr 1000 ------- 2 1.0 2.0 27 27
+ 0.13248 1 2 cbr 1000 ------- 2 1.0 2.0 203 203
d 0.13248 1 2 cbr 1000 ------- 2 1.0 2.0 203 203
+ 0.13264 1 2 cbr 1000 ------- 2 1.0 2.0 204 204
d 0.13264 1 2 cbr 1000 ------- 2 1.0 2.0 204 204
+ 0.1328 1 2 cbr 1000 ------- 2 1.0 2.0 205 205
d 0.1328 1 2 cbr 1000 ------- 2 1.0 2.0 205 205
- 0.1328 1 2 cbr 1000 ------- 2 1.0 2.0 41 41
+ 0.13296 1 2 cbr 1000 ------- 2 1.0 2.0 206 206
+ 0.13312 1 2 cbr 1000 ------- 2 1.0 2.0 207 207
d 0.13312 1 2 cbr 1000 ------- 2 1.0 2.0 207 207
r 0.1332 1 2 cbr 1000 ------- 2 1.0 2.0 28 28
+ 0.13328 1 2 cbr 1000 ------- 2 1.0 2.0 208 208
d 0.13328 1 2 cbr 1000 ------- 2 1.0 2.0 208 208
+ 0.13344 1 2 cbr 1000 ------- 2 1.0 2.0 209 209
d 0.13344 1 2 cbr 1000 ------- 2 1.0 2.0 209 209
+ 0.1336 1 2 cbr 1000 ------- 2 1.0 2.0 210 210
d 0.1336 1 2 cbr 1000 ------- 2 1.0 2.0 210 210
- 0.1336 1 2 cbr 1000 ------- 2 1.0 2.0 42 42
+ 0.13376 1 2 cbr 1000 ------- 2 1.0 2.0 211 211
+ 0.13392 1 2 cbr 1000 ------- 2 1.0 2.0 212 212
d 0.13392 1 2 cbr 1000 ------- 2 1.0 2.0 212 212
r 0.134 1 2 cbr 1000 ------- 2 1.0 2.0 29 29
+ 0.13408 1 2 cbr 1000 ------- 2 1.0 2.0 213 213
d 0.13408 1 2 cbr 1000 ------- 2 1.0 2.0 213 213
+ 0.13424 1 2 cbr 1000 ------- 2 1.0 2.0 214 214
d 0.13424 1 2 cbr 1000 ------- 2 1.0 2.0 214 214
+ 0.1344 1 2 cbr 1000 ------- 2 1.0 2.0 215 215
d 0.1344 1 2 cbr 1000 ------- 2 1.0 2.0 215 215
- 0.1344 1 2 cbr 1000 ------- 2 1.0 2.0 43 43
+ 0.13456 1 2 cbr 1000 ------- 2 1.0 2.0 216 216
+ 0.13472 1 2 cbr 1000 ------- 2 1.0 2.0 217 217
d 0.13472 1 2 cbr 1000 ------- 2 1.0 2.0 217 217
r 0.1348 1 2 cbr 1000 ------- 2 1.0 2.0 30 30
+ 0.13488 1 2 cbr 1000 ------- 2 1.0 2.0 218 218
d 0.13488 1 2 cbr 1000 ------- 2 1.0 2.0 218 218
+ 0.13504 1 2 cbr 1000 ------- 2 1.0 2.0 219 219
d 0.13504 1 2 cbr 1000 ------- 2 1.0 2.0 219 219
+ 0.1352 1 2 cbr 1000 ------- 2 1.0 2.0 220 220
d 0.1352 1 2 cbr 1000 ------- 2 1.0 2.0 220 220
- 0.1352 1 2 cbr 1000 ------- 2 1.0 2.0 44 44
+ 0.13536 1 2 cbr 1000 ------- 2 1.0 2.0 221 221
+ 0.13552 1 2 cbr 1000 ------- 2 1.0 2.0 222 222
d 0.13552 1 2 cbr 1000 ------- 2 1.0 2.0 222 222
r 0.1356 1 2 cbr 1000 ------- 2 1.0 2.0 31 31
+ 0.13568 1 2 cbr 1000 ------- 2 1.0 2.0 223 223
d 0.13568 1 2 cbr 1000 ------- 2 1.0 2.0 223 223
+ 0.13584 1 2 cbr 1000 ------- 2 1.0 2.0 224 224
d 0.13584 1 2 cbr 1000 ------- 2 1.0 2.0 224 224
+ 0.136 1 2 cbr 1000 ------- 2 1.0 2.0 225 225
d 0.136 1 2 cbr 1000 ------- 2 1.0 2.0 225 225
- 0.136 1 2 cbr 1000 ------- 2 1.0 2.0 45 45
+ 0.13616 1 2 cbr 1000 ------- 2 1.0 2.0 226 226
+ 0.13632 1 2 cbr 1000 ------- 2 1.0 2.0 227 227
d 0.13632 1 2 cbr 1000 ------- 2 1.0 2.0 227 227
r 0.1364 1 2 cbr 1000 ------- 2 1.0 2.0 32 32
+ 0.13648 1 2 cbr 1000 ------- 2 1.0 2.0 228 228
d 0.13648 1 2 cbr 1000 ------- 2 1.0 2.0 228 228
+ 0.13664 1 2 cbr 1000 ------- 2 1.0 2.0 229 229
d 0.13664 1 2 cbr 1000 ------- 2 1.0 2.0 229 229
+ 0.1368 1 2 cbr 1000 ------- 2 1.0 2.0 230 230
d 0.1368 1 2 cbr 1000 ------- 2 1.0 2.0 230 230
- 0.1368 1 2 cbr 1000 ------- 2 1.0 2.0 46 46
+ 0.13696 1 2 cbr 1000 ------- 2 1.0 2.0 231 231
+ 0.13712 1 2 cbr 1000 ------- 2 1.0 2.0 232 232
d 0.13712 1 2 cbr 1000 ------- 2 1.0 2.0 232 232
r 0.1372 1 2 cbr 1000 ------- 2 1.0 2.0 33 33
+ 0.13728 1 2 cbr 1000 ------- 2 1.0 2.0 233 233
d 0.13728 1 2 cbr 1000 ------- 2 1.0 2.0 233 233
+ 0.13744 1 2 cbr 1000 ------- 2 1.0 2.0 234 234
d 0.13744 1 2 cbr 1000 ------- 2 1.0 2.0 234 234
+ 0.1376 1 2 cbr 1000 ------- 2 1.0 2.0 235 235
d 0.1376 1 2 cbr 1000 ------- 2 1.0 2.0 235 235
- 0.1376 1 2 cbr 1000 ------- 2 1.0 2.0 47 47
+ 0.13776 1 2 cbr 1000 ------- 2 1.0 2.0 236 236
+ 0.13792 1 2 cbr 1000 ------- 2 1.0 2.0 237 237
d 0.13792 1 2 cbr 1000 ------- 2 1.0 2.0 237 237
r 0.138 1 2 cbr 1000 ------- 2 1.0 2.0 34 34
+ 0.13808 1 2 cbr 1000 ------- 2 1.0 2.0 238 238
d 0.13808 1 2 cbr 1000 ------- 2 1.0 2.0 238 238
+ 0.13824 1 2 cbr 1000 ------- 2 1.0 2.0 239 239
d 0.13824 1 2 cbr 1000 ------- 2 1.0 2.0 239 239
+ 0.1384 1 2 cbr 1000 ------- 2 1.0 2.0 240 240
d 0.1384 1 2 cbr 1000 ------- 2 1.0 2.0 240 240
- 0.1384 1 2 cbr 1000 ------- 2 1.0 2.0 48 48
+ 0.13856 1 2 cbr 1000 ------- 2 1.0 2.0 241 241
+ 0.13872 1 2 cbr 1000 ------- 2 1.0 2.0 242 242
d 0.13872 1 2 cbr 1000 ------- 2 1.0 2.0 242 242
r 0.1388 1 2 cbr 1000 ------- 2 1.0 2.0 35 35
+ 0.13888 1 2 cbr 1000 ------- 2 1.0 2.0 243 243
d 0.13888 1 2 cbr 1000 ------- 2 1.0 2.0 243 243
+ 0.13904 1 2 cbr 1000 ------- 2 1.0 2.0 244 244
d 0.13904 1 2 cbr 1000 ------- 2 1.0 2.0 244 244
+ 0.1392 1 2 cbr 1000 ------- 2 1.0 2.0 245 245
d 0.1392 1 2 cbr 1000 ------- 2 1.0 2.0 245 245
- 0.1392 1 2 cbr 1000 ------- 2 1.0 2.0 49 49
+ 0.13936 1 2 cbr 1000 ------- 2 1.0 2.0 246 246
+ 0.13952 1 2 cbr 1000 ------- 2 1.0 2.0 247 247
d 0.13952 1 2 cbr 1000 ------- 2 1.0 2.0 247 247
r 0.1396 1 2 cbr 1000 ------- 2 1.0 2.0 36 36
+ 0.13968 1 2 cbr 1000 ------- 2 1.0 2.0 248 248
d 0.13968 1 2 cbr 1000 ------- 2 1.0 2.0 248 248
+ 0.13984 1 2 cbr 1000 ------- 2 1.0 2.0 249 249
d 0.13984 1 2 cbr 1000 ------- 2 1.0 2.0 249 249
+ 0.14 1 2 cbr 1000 ------- 2 1.0 2.0 250 250
d 0.14 1 2 cbr 1000 ------- 2 1.0 2.0 250 250
- 0.14 1 2 cbr 1000 ------- 2 1.0 2.0 50 50
+ 0.14016 1 2 cbr 1000 ------- 2 1.0 2.0 251 251
+ 0.14032 1 2 cbr 1000 ------- 2 1.0 2.0 252 252
d 0.14032 1 2 cbr 1000 ------- 2 1.0 2.0 252 252
r 0.1404 1 2 cbr 1000 ------- 2 1.0 2.0 37 37
+ 0.14048 1 2 cbr 1000 ------- 2 1.0 2.0 253 253
d 0.14048 1 2 cbr 1000 ------- 2 1.0 2.0 253 253
+ 0.14064 1 2 cbr 1000 ------- 2 1.0 2.0 254 254
d 0.14064 1 2 cbr 1000 ------- 2 1.0 2.0 254 254
+ 0.1408 1 2 cbr 1000 ------- 2 1.0 2.0 255 255
d 0.1408 1 2 cbr 1000 ------- 2 1.0 2.0 255 255
- 0.1408 1 2 cbr 1000 ------- 2 1.0 2.0 51 51
+ 0.14096 1 2 cbr 1000 ------- 2 1.0 2.0 256 256
+ 0.14112 1 2 cbr 1000 ------- 2 1.0 2.0 257 257
d 0.14112 1 2 cbr 1000 ------- 2 1.0 2.0 257 257
r 0.1412 1 2 cbr 1000 ------- 2 1.0 2.0 38 38
+ 0.14128 1 2 cbr 1000 ------- 2 1.0 2.0 258 258
d 0.14128 1 2 cbr 1000 ------- 2 1.0 2.0 258 258
+ 0.14144 1 2 cbr 1000 ------- 2 1.0 2.0 259 259
d 0.14144 1 2 cbr 1000 ------- 2 1.0 2.0 259 259
+ 0.1416 1 2 cbr 1000 ------- 2 1.0 2.0 260 260
d 0.1416 1 2 cbr 1000 ------- 2 1.0 2.0 260 260
- 0.1416 1 2 cbr 1000 ------- 2 1.0 2.0 52 52
+ 0.14176 1 2 cbr 1000 ------- 2 1.0 2.0 261 261
+ 0.14192 1 2 cbr 1000 ------- 2 1.0 2.0 262 262
d 0.14192 1 2 cbr 1000 ------- 2 1.0 2.0 262 262
r 0.142 1 2 cbr 1000 ------- 2 1.0 2.0 39 39
+ 0.14208 1 2 cbr 1000 ------- 2 1.0 2.0 263 263
d 0.14208 1 2 cbr 1000 ------- 2 1.0 2.0 263 263
+ 0.14224 1 2 cbr 1000 ------- 2 1.0 2.0 264 264
d 0.14224 1 2 cbr 1000 ------- 2 1.0 2.0 264 264
+ 0.1424 1 2 cbr 1000 ------- 2 1.0 2.0 265 265
d 0.1424 1 2 cbr 1000 ------- 2 1.0 2.0 265 265
- 0.1424 1 2 cbr 1000 ------- 2 1.0 2.0 53 53
+ 0.14256 1 2 cbr 1000 ------- 2 1.0 2.0 266 266
+ 0.14272 1 2 cbr 1000 ------- 2 1.0 2.0 267 267
d 0.14272 1 2 cbr 1000 ------- 2 1.0 2.0 267 267
r 0.1428 1 2 cbr 1000 ------- 2 1.0 2.0 40 40
+ 0.14288 1 2 cbr 1000 ------- 2 1.0 2.0 268 268
d 0.14288 1 2 cbr 1000 ------- 2 1.0 2.0 268 268
+ 0.14304 1 2 cbr 1000 ------- 2 1.0 2.0 269 269
d 0.14304 1 2 cbr 1000 ------- 2 1.0 2.0 269 269
+ 0.1432 1 2 cbr 1000 ------- 2 1.0 2.0 270 270
d 0.1432 1 2 cbr 1000 ------- 2 1.0 2.0 270 270
- 0.1432 1 2 cbr 1000 ------- 2 1.0 2.0 54 54
+ 0.14336 1 2 cbr 1000 ------- 2 1.0 2.0 271 271
+ 0.14352 1 2 cbr 1000 ------- 2 1.0 2.0 272 272
d 0.14352 1 2 cbr 1000 ------- 2 1.0 2.0 272 272
r 0.1436 1 2 cbr 1000 ------- 2 1.0 2.0 41 41
+ 0.14368 1 2 cbr 1000 ------- 2 1.0 2.0 273 273
d 0.14368 1 2 cbr 1000 ------- 2 1.0 2.0 273 273
+ 0.14384 1 2 cbr 1000 ------- 2 1.0 2.0 274 274
d 0.14384 1 2 cbr 1000 ------- 2 1.0 2.0 274 274
+ 0.144 1 2 cbr 1000 ------- 2 1.0 2.0 275 275
d 0.144 1 2 cbr 1000 ------- 2 1.0 2.0 275 275
- 0.144 1 2 cbr 1000 ------- 2 1.0 2.0 55 55
+ 0.14416 1 2 cbr 1000 ------- 2 1.0 2.0 276 276
+ 0.14432 1 2 cbr 1000 ------- 2 1.0 2.0 277 277
d 0.14432 1 2 cbr 1000 ------- 2 1.0 2.0 277 277
r 0.1444 1 2 cbr 1000 ------- 2 1.0 2.0 42 42
+ 0.14448 1 2 cbr 1000 ------- 2 1.0 2.0 278 278
d 0.14448 1 2 cbr 1000 ------- 2 1.0 2.0 278 278
+ 0.14464 1 2 cbr 1000 ------- 2 1.0 2.0 279 279
d 0.14464 1 2 cbr 1000 ------- 2 1.0 2.0 279 279
+ 0.1448 1 2 cbr 1000 ------- 2 1.0 2.0 280 280
d 0.1448 1 2 cbr 1000 ------- 2 1.0 2.0 280 280
- 0.1448 1 2 cbr 1000 ------- 2 1.0 2.0 56 56
+ 0.14496 1 2 cbr 1000 ------- 2 1.0 2.0 281 281
+ 0.14512 1 2 cbr 1000 ------- 2 1.0 2.0 282 282
d 0.14512 1 2 cbr 1000 ------- 2 1.0 2.0 282 282
r 0.1452 1 2 cbr 1000 ------- 2 1.0 2.0 43 43
+ 0.14528 1 2 cbr 1000 ------- 2 1.0 2.0 283 283
d 0.14528 1 2 cbr 1000 ------- 2 1.0 2.0 283 283
+ 0.14544 1 2 cbr 1000 ------- 2 1.0 2.0 284 284
d 0.14544 1 2 cbr 1000 ------- 2 1.0 2.0 284 284
+ 0.1456 1 2 cbr 1000 ------- 2 1.0 2.0 285 285
d 0.1456 1 2 cbr 1000 ------- 2 1.0 2.0 285 285
- 0.1456 1 2 cbr 1000 ------- 2 1.0 2.0 57 57
+ 0.14576 1 2 cbr 1000 ------- 2 1.0 2.0 286 286
+ 0.14592 1 2 cbr 1000 ------- 2 1.0 2.0 287 287
d 0.14592 1 2 cbr 1000 ------- 2 1.0 2.0 287 287
r 0.146 1 2 cbr 1000 ------- 2 1.0 2.0 44 44
+ 0.14608 1 2 cbr 1000 ------- 2 1.0 2.0 288 288
d 0.14608 1 2 cbr 1000 ------- 2 1.0 2.0 288 288
+ 0.14624 1 2 cbr 1000 ------- 2 1.0 2.0 289 289
d 0.14624 1 2 cbr 1000 ------- 2 1.0 2.0 289 289
+ 0.1464 1 2 cbr 1000 ------- 2 1.0 2.0 290 290
d 0.1464 1 2 cbr 1000 ------- 2 1.0 2.0 290 290
- 0.1464 1 2 cbr 1000 ------- 2 1.0 2.0 58 58
+ 0.14656 1 2 cbr 1000 ------- 2 1.0 2.0 291 291
+ 0.14672 1 2 cbr 1000 ------- 2 1.0 2.0 292 292
d 0.14672 1 2 cbr 1000 ------- 2 1.0 2.0 292 292
r 0.1468 1 2 cbr 1000 ------- 2 1.0 2.0 45 45
+ 0.14688 1 2 cbr 1000 ------- 2 1.0 2.0 293 293
d 0.14688 1 2 cbr 1000 ------- 2 1.0 2.0 293 293
+ 0.14704 1 2 cbr 1000 ------- 2 1.0 2.0 294 294
d 0.14704 1 2 cbr 1000 ------- 2 1.0 2.0 294 294
+ 0.1472 1 2 cbr 1000 ------- 2 1.0 2.0 295 295
d 0.1472 1 2 cbr 1000 ------- 2 1.0 2.0 295 295
- 0.1472 1 2 cbr 1000 ------- 2 1.0 2.0 59 59
+ 0.14736 1 2 cbr 1000 ------- 2 1.0 2.0 296 296
+ 0.14752 1 2 cbr 1000 ------- 2 1.0 2.0 297 297
d 0.14752 1 2 cbr 1000 ------- 2 1.0 2.0 297 297
r 0.1476 1 2 cbr 1000 ------- 2 1.0 2.0 46 46
+ 0.14768 1 2 cbr 1000 ------- 2 1.0 2.0 298 298
d 0.14768 1 2 cbr 1000 ------- 2 1.0 2.0 298 298
+ 0.14784 1 2 cbr 1000 ------- 2 1.0 2.0 299 299
d 0.14784 1 2 cbr 1000 ------- 2 1.0 2.0 299 299
+ 0.148 1 2 cbr 1000 ------- 2 1.0 2.0 300 300
d 0.148 1 2 cbr 1000 ------- 2 1.0 2.0 300 300
- 0.148 1 2 cbr 1000 ------- 2 1.0 2.0 60 60
+ 0.14816 1 2 cbr 1000 ------- 2 1.0 2.0 301 301
+ 0.14832 1 2 cbr 1000 ------- 2 1.0 2.0 302 302
d 0.14832 1 2 cbr 1000 ------- 2 1.0 2.0 302 302
r 0.1484 1 2 cbr 1000 ------- 2 1.0 2.0 47 47
+ 0.14848 1 2 cbr 1000 ------- 2 1.0 2.0 303 303
d 0.14848 1 2 cbr 1000 ------- 2 1.0 2.0 303 303
+ 0.14864 1 2 cbr 1000 ------- 2 1.0 2.0 304 304
d 0.14864 1 2 cbr 1000 ------- 2 1.0 2.0 304 304
+ 0.1488 1 2 cbr 1000 ------- 2 1.0 2.0 305 305
d 0.1488 1 2 cbr 1000 ------- 2 1.0 2.0 305 305
- 0.1488 1 2 cbr 1000 ------- 2 1.0 2.0 61 61
+ 0.14896 1 2 cbr 1000 ------- 2 1.0 2.0 306 306
+ 0.14912 1 2 cbr 1000 ------- 2 1.0 2.0 307 307
d 0.14912 1 2 cbr 1000 ------- 2 1.0 2.0 307 307
r 0.1492 1 2 cbr 1000 ------- 2 1.0 2.0 48 48
+ 0.14928 1 2 cbr 1000 ------- 2 1.0 2.0 308 308
d 0.14928 1 2 cbr 1000 ------- 2 1.0 2.0 308 308
+ 0.14944 1 2 cbr 1000 ------- 2 1.0 2.0 309 309
d 0.14944 1 2 cbr 1000 ------- 2 1.0 2.0 309 309
+ 0.1496 1 2 cbr 1000 ------- 2 1.0 2.0 310 310
d 0.1496 1 2 cbr 1000 ------- 2 1.0 2.0 310 310
- 0.1496 1 2 cbr 1000 ------- 2 1.0 2.0 66 66
+ 0.14976 1 2 cbr 1000 ------- 2 1.0 2.0 311 311
+ 0.14992 1 2 cbr 1000 ------- 2 1.0 2.0 312 312
d 0.14992 1 2 cbr 1000 ------- 2 1.0 2.0 312 312
r 0.15 1 2 cbr 1000 ------- 2 1.0 2.0 49 49
+ 0.15008 1 2 cbr 1000 ------- 2 1.0 2.0 313 313
d 0.15008 1 2 cbr 1000 ------- 2 1.0 2.0 313 313